# vtk DataFile Version 2.0
Random MD density example
ASCII
DATASET STRUCTURED_POINTS
DIMENSIONS 3 3 3
ORIGIN 0.0 0.0 0.0
SPACING 16.666666666666668 16.666666666666668 24.85287
POINT_DATA 27
SCALARS density float
LOOKUP_TABLE default
0.0
0.0
0.0
0.0
0.9757136770345122
0.0
0.0
0.0
0.0
0.0
0.0
0.0
0.0
1.0
0.0
0.0
0.0
0.0
0.0
0.0
0.0
0.0
0.9190455901150405
0.0
0.0
0.0
0.0
